% Model:              GRACE_shield_closedhole5_thickness_2.mph
% Version:            COMSOL 5.6.0.341
% Date:               Jun 17 2021, 10:49
% Dimension:          3
% Nodes:              228
% Expressions:        2
% Description:        Magnetic Field, Magnetic Field Gradient
% Length unit:        m
% x                       y                        z                        log10(mf.Bx)                                      log10(d(laginterp(2,mf.Bx),x))
-0.12000000000000004      0                        0                        -7.784359854191626+1.3643763538418412i            -6.510743433876344+1.3643763538418412i
-0.10000000000000003      0                        0                        -6.9893993119874285+1.3643763538418412i           -5.081153114324307+1.3643763538418412i
-0.2                      0                        0                        -19.162943999677463                               -8.97650431379199
-0.18000000000000002      0                        0                        -10.464822036766474+1.3643763538418412i           -8.348269144781348+1.3643763538418412i
0.10000000000000003       0                        0                        -2.492307943700197+1.3643763538418412i            -0.26629230229535417
0.11999999999999994       0                        0                        -3.8551089213779406+1.3643763538418412i           -0.6313081434305227+1.3643763538418412i
0.18                      0                        0                        -7.928791541205709+1.3643763538418412i            -5.735907328031669
0.2                       0                        0                        -16.990241127582156+1.3643763538418412i           -6.1812734891760845+1.3643763538418412i
-0.14000000000000004      0                        0                        -8.54353289970485+1.3643763538418412i             -6.6593538258434295+1.3643763538418412i
-0.16000000000000003      0                        0                        -9.359008443250953+1.3643763538418412i            -7.634263318928673+1.3643763538418412i
0.13999999999999996       0                        0                        -5.11208221038646+1.3643763538418412i             -2.8864083713900124
0.15999999999999998       0                        0                        -6.43342196199472+1.3643763538418412i             -3.2492793816163372+1.3643763538418412i
0.03457964464898397       0                        0                        -6.469615306848353+1.3643763538418412i            -3.379962470323249+1.3643763538418412i
0.034786109202638305      0                        0                        -6.375970800159064+1.3643763538418412i            -3.413879751744845+1.3643763538418412i
0.034287247585095576      0                        0                        -6.871838545068321+1.3643763538418412i            -4.845965503580088+1.3643763538418412i
0.03429935455595082       0                        0                        -6.679102439904897+1.3643763538418412i            -4.245460067218038+1.3643763538418412i
0.03688621668703643       0                        0                        -5.863389246698328+1.3643763538418412i            -3.2272581867274197+1.3643763538418412i
0.03688745870242141       0                        0                        -5.98302497120005+1.3643763538418412i             -2.6793581126205757+1.3643763538418412i
0.03702779441099019       0                        0                        -6.023472757662918+1.3643763538418412i            -2.9051427979865863+1.3643763538418412i
0.0378125564903847        0                        0                        -5.716276700549097+1.3643763538418412i            -2.906444269394092+1.3643763538418412i
0.03855205825545602       0                        0                        -5.571279589265196+1.3643763538418412i            -2.8705066844780194+1.3643763538418412i
0.0392693313019524        0                        0                        -5.438229183186122+1.3643763538418412i            -2.8736058829793776+1.3643763538418412i
0.03982278547072102       0                        0                        -5.358219172774376+1.3643763538418412i            -2.8760211010267245+1.3643763538418412i
0.03999264885894899       0                        0                        -5.363605339608134+1.3643763538418412i            -3.6541764951083207+1.3643763538418412i
0.08999999999999997       0                        0                        -3.0198112798377856+1.3643763538418412i           -0.8051565593907436+1.3643763538418412i
0.015227341150226698      0                        0                        -8.541740016166136+1.3643763538418412i            -6.799748452935558+1.3643763538418412i
0.015949862543564564      0                        0                        -8.524729250335051+1.3643763538418412i            -6.799111187246637+1.3643763538418412i
0.01599999999999993       0                        0                        -8.523573174014942+1.3643763538418412i            -6.798582018352815+1.3643763538418412i
0.014999999999999986      0                        0                        -8.547233385327722+1.3643763538418412i            -6.801516109980019+1.3643763538418412i
-0.015075698971406287     0                        0                        -8.958230056001957                                -7.0660162304910035+1.3643763538418412i
-0.015000000000000041     0                        0                        -8.960802665002403                                -7.06601623049099+1.3643763538418412i
-0.015560364191192833     0                        0                        -8.943015388452155                                -7.071330665661632+1.3643763538418412i
-0.015143340897989077     0                        0                        -8.955272378297042                                -7.084121722064039+1.3643763538418412i
-0.016000000000000042     0                        0                        -8.929033925791686                                -7.101153903159642+1.3643763538418412i
0.025999999999999968      0                        0                        -8.255196543213366+1.3643763538418412i            -6.169669196393241+1.3643763538418412i
0.026017050383558477      0                        0                        -8.254295811678741+1.3643763538418412i            -6.16966919639324+1.3643763538418412i
0.026052660855269416      0                        0                        -8.25498608317088+1.3643763538418412i             -6.123412966073149+1.3643763538418412i
0.0263967637555588        0                        0                        -8.245741932389597+1.3643763538418412i            -5.989718705450887+1.3643763538418412i
0.027737729786166954      0                        0                        -8.141126170201169+1.3643763538418412i            -5.930916480251283+1.3643763538418412i
0.028013783404911674      0                        0                        -8.122096216762033+1.3643763538418412i            -5.930916480251283+1.3643763538418412i
0.0284089439342885        0                        0                        -8.096393101582928+1.3643763538418412i            -5.722447183694412+1.3643763538418412i
0.030739235810141347      0                        0                        -7.8813215979104845+1.3643763538418412i           -5.674921306707881+1.3643763538418412i
0.03074764322585183       0                        0                        -7.88073471204724+1.3643763538418412i             -5.674921306707882+1.3643763538418412i
0.03050237944443812       0                        0                        -7.921685576763424+1.3643763538418412i            -5.72244718369441+1.3643763538418412i
0.030941499401636097      0                        0                        -7.722606372515949+1.3643763538418412i            -5.654214878964467+1.3643763538418412i
0.03101126942305124       0                        0                        -7.708169296149593+1.3643763538418412i            -5.4266365753624095+1.3643763538418412i
0.03093424684554061       0                        0                        -7.803067961489587+1.3643763538418412i            -5.626822048517332+1.3643763538418412i
0.031073050601891028      0                        0                        -7.626321853927022+1.3643763538418412i            -4.734348526188258+1.3643763538418412i
0.03427945319272374       0                        0                        -7.053687501794926+1.3643763538418412i            -4.665954766049887+1.3643763538418412i
0.03166442645220005       0                        0                        -7.495663937280405+1.3643763538418412i            -4.665954766049888+1.3643763538418412i
0.03169166550764543       0                        0                        -7.487744039804527+1.3643763538418412i            -4.665954766049888+1.3643763538418412i
0.035564753704823815      0                        0                        -6.231665026031828+1.3643763538418412i            -3.2272581867274197+1.3643763538418412i
0.04020570792700204       0                        0                        -5.358646109930274+1.3643763538418412i            -3.776411714938612+1.3643763538418412i
0.04135225398133255       0                        0                        -5.333299693973549+1.3643763538418412i            -3.7419428595911484+1.3643763538418412i
0.04257424218845815       0                        0                        -5.309009040757235+1.3643763538418412i            -3.8051001648011127+1.3643763538418412i
0.04102415980105789       0                        0                        -5.338896432747473+1.3643763538418412i            -3.7419428595911493+1.3643763538418412i
0.040965726636060934      0                        0                        -5.339900815831062+1.3643763538418412i            -3.74194285959115+1.3643763538418412i
0.04312633852792819       0                        0                        -5.303119215154108+1.3643763538418412i            -3.954525716451224+1.3643763538418412i
0.043288395711028466      0                        0                        -5.300422487999754+1.3643763538418412i            -3.8793549529890603+1.3643763538418412i
0.04616744454944555       0                        0                        -5.268645303876923+1.3643763538418412i            -3.879354952989051+1.3643763538418412i
0.04634939078286632       0                        0                        -5.2658957733110405+1.3643763538418412i           -3.8477122212241044+1.3643763538418412i
0.04664956686438404       0                        0                        -5.262494494776494+1.3643763538418412i            -3.8477122212241035+1.3643763538418412i
0.04806522351305373       0                        0                        -5.242667724706529+1.3643763538418412i            -3.76821106766568+1.3643763538418412i
0.04827548406021759       0                        0                        -5.2399535302785205+1.3643763538418412i           -3.768211067665681+1.3643763538418412i
0.04865834147063933       0                        0                        -5.23505447879925+1.3643763538418412i             -3.768211067665687+1.3643763538418412i
-0.026007838244611226     0                        0                        -8.757291065952273                                -7.4765127811911585+1.3643763538418412i
-0.025999999999999995     0                        0                        -8.75818003684481                                 -7.4612301576136+1.3643763538418412i
-0.02636392913109245      0                        0                        -8.75392443193061                                 -7.528572376985822+1.3643763538418412i
-0.027864343142226244     0                        0                        -8.74318163494123                                 -7.555156917985034+1.3643763538418412i
-0.026923840094698226     0                        0                        -8.749857934497468                                -7.528572376985781+1.3643763538418412i
-0.02849267491396207      0                        0                        -8.73894203208486                                 -7.601358256741647+1.3643763538418412i
-0.03085129020584179      0                        0                        -8.725504068291018                                -7.691555765343765+1.3643763538418412i
-0.029800575636043852     0                        0                        -8.730930985158874                                -7.643554039688501+1.3643763538418412i
-0.02878427675872225      0                        0                        -8.736196090003842                                -7.637024447410052+1.3643763538418412i
-0.03109435556235121      0                        0                        -8.724450886542058                                -7.817851695248548+1.3643763538418412i
0.050256890411149         0                        0                        -5.214309273684154+1.3643763538418412i            -3.5944852828602354+1.3643763538418412i
0.050826220244681086      0                        0                        -5.205938537413588+1.3643763538418412i            -3.503033499164372+1.3643763538418412i
0.054630631034973676      0                        0                        -5.129679802693795+1.3643763538418412i            -3.5030334991643715+1.3643763538418412i
0.05047329970804104       0                        0                        -5.213741543433216+1.3643763538418412i            -3.5030334991643723+1.3643763538418412i
0.056145091795571145      0                        0                        -5.109984256649202+1.3643763538418412i            -3.2305624267621633+1.3643763538418412i
0.05731251949080485       0                        0                        -5.073179512083096+1.3643763538418412i            -3.2305624267621624+1.3643763538418412i
0.060787443494649485      0                        0                        -4.9791071950577095+1.3643763538418412i           -3.230562426762162+1.3643763538418412i
0.064402339110741         0                        0                        -4.86969928256461+1.3643763538418412i             -3.0396352355454166+1.3643763538418412i
-0.03340743856176215      0                        0                        -8.716554752148514                                -7.7744077024138125+1.3643763538418412i
-0.031671161647355006     0                        0                        -8.723205515421443                                -7.774407702414116+1.3643763538418412i
-0.03150138655648832      0                        0                        -8.723027577742132                                -7.817851695248416+1.3643763538418412i
-0.03350000000000003      0                        0                        -8.716977043434019                                -8.003811225917378+1.3643763538418412i
0.0664655143175556        0                        0                        -4.796291529473248+1.3643763538418412i            -2.94928236569097+1.3643763538418412i
0.0671751630666767        0                        0                        -4.778467167099711+1.3643763538418412i            -2.71358472706676+1.3643763538418412i
0.07258376182288961       0                        0                        -4.566809850171612+1.3643763538418412i            -2.7135847270667606+1.3643763538418412i
0.0727366863072475        0                        0                        -4.520708335738295+1.3643763538418412i            -2.614863533225769+1.3643763538418412i
0.0732448997363036        0                        0                        -4.503292739261853+1.3643763538418412i            -2.6148635332257695+1.3643763538418412i
-0.036000000000000004     0                        0                        -8.714340394126785                                -8.258408647929325+1.3643763538418412i
-0.03434909399702271      0                        0                        -8.716393752146212                                -8.258408647929377+1.3643763538418412i
-0.03357074443855396      0                        0                        -8.717365222929292                                -8.258408647929423+1.3643763538418412i
-0.039104512714215056     0                        0                        -6.682573830040731+1.3643763538418412i            -7.004649451128137+1.3643763538418412i
-0.038000000000000006     0                        0                        -6.682362291408558+1.3643763538418412i            -7.161025048487678+1.3643763538418412i
-0.03998953107582898      0                        0                        -6.683010473701892+1.3643763538418412i            -6.622565986449009+1.3643763538418412i
-0.039564610152476726     0                        0                        -6.682798427309748+1.3643763538418412i            -6.622565986449158+1.3643763538418412i
-0.04013549536903066      0                        0                        -6.683135449009685+1.3643763538418412i            -6.325047328679444+1.3643763538418412i
-0.042290578048304245     0                        0                        -6.685319750581863+1.3643763538418412i            -6.2344911883906775+1.3643763538418412i
-0.040863663979758436     0                        0                        -6.683857329451825+1.3643763538418412i            -6.325047328679535+1.3643763538418412i
-0.04025826094127877      0                        0                        -6.683257070363507+1.3643763538418412i            -6.325047328679473+1.3643763538418412i
-0.04275996879407257      0                        0                        -6.685889811968408+1.3643763538418412i            -6.1197781549948935+1.3643763538418412i
-0.043554572352666965     0                        0                        -6.6871623846763075+1.3643763538418412i           -6.119778154994888+1.3643763538418412i
-0.043742295901917        0                        0                        -6.6875657719676305+1.3643763538418412i           -6.065403452268636+1.3643763538418412i
-0.04388685006437537      0                        0                        -6.6873957184121595+1.3643763538418412i           -6.0107819492111805+1.3643763538418412i
-0.04557519311613911      0                        0                        -6.690891994667385+1.3643763538418412i            -6.010781949211176+1.3643763538418412i
-0.04623761766929216      0                        0                        -6.692465547691325+1.3643763538418412i            -5.952296828434394+1.3643763538418412i
-0.04650179353575851      0                        0                        -6.693096740044849+1.3643763538418412i            -5.9522968284344016+1.3643763538418412i
-0.04918927107510923      0                        0                        -6.700490059245162+1.3643763538418412i            -5.88594058046251+1.3643763538418412i
-0.04941995184900225      0                        0                        -6.7012897031349+1.3643763538418412i              -5.8153881059666785+1.3643763538418412i
-0.051498374143733594     0                        0                        -6.708286729605785+1.3643763538418412i            -5.815388105966685+1.3643763538418412i
-0.052160722836172346     0                        0                        -6.710964771531586+1.3643763538418412i            -5.738052839482228+1.3643763538418412i
-0.052730974767277394     0                        0                        -6.712991523555075+1.3643763538418412i            -5.7463222043077+1.3643763538418412i
-0.05491048966105125      0                        0                        -6.721855173551794+1.3643763538418412i            -5.707560688174542+1.3643763538418412i
-0.061546394088340395     0                        0                        -6.753480728140108+1.3643763538418412i            -5.689980115747291+1.3643763538418412i
-0.06065901509027055      0                        0                        -6.748454272540461+1.3643763538418412i            -5.707560688174542+1.3643763538418412i
-0.0589329762820994       0                        0                        -6.740295167720761+1.3643763538418412i            -5.707560688174544+1.3643763538418412i
-0.0645685324672701       0                        0                        -6.769784076799797+1.3643763538418412i            -5.6738142104593345+1.3643763538418412i
-0.06263072837122985      0                        0                        -6.759124554374761+1.3643763538418412i            -5.676996924477908+1.3643763538418412i
-0.06516050429624007      0                        0                        -6.772689660189299+1.3643763538418412i            -5.669291878409325+1.3643763538418412i
-0.07417204706857325      0                        0                        -6.824188927858203+1.3643763538418412i            -5.685464422942708+1.3643763538418412i
-0.06915861454913241      0                        0                        -6.795299246124669+1.3643763538418412i            -5.6692918784093225+1.3643763538418412i
-0.08482585802846464      0                        0                        -6.889287020290973+1.3643763538418412i            -5.711743391514169+1.3643763538418412i
-0.07870936809657228      0                        0                        -6.851042634128748+1.3643763538418412i            -5.711743391514167+1.3643763538418412i
-0.07674184286866231      0                        0                        -6.838996538746603+1.3643763538418412i            -5.699387623575407+1.3643763538418412i
-0.03700040025093307      0                        0                        -6.991070343884763+1.3643763538418412i            -3.9775719845978323
-0.024715554385071087     0                        0                        -8.769517386522283                                -7.401597343182271+1.3643763538418412i
-0.024500000000000022     0                        0                        -8.771706939882613                                -7.371674981591553+1.3643763538418412i
-0.025928090036331564     0                        0                        -8.757944562891666                                -7.438418989613236+1.3643763538418412i
-0.024892108727429862     0                        0                        -8.76743747842463                                 -7.438418989613285+1.3643763538418412i
-0.020206067642968117     0                        0                        -8.830905779159492                                -7.222971253516053+1.3643763538418412i
-0.01974999999999999      0                        0                        -8.83901155674843                                 -7.212084102334301+1.3643763538418412i
-0.022560068513315712     0                        0                        -8.794844550038995                                -7.312625355269367+1.3643763538418412i
-0.021932578046419432     0                        0                        -8.803175764435323                                -7.265749050667789+1.3643763538418412i
-0.021271799637144706     0                        0                        -8.813181758959354                                -7.265749050667789+1.3643763538418412i
-0.020336485429939766     0                        0                        -8.828477557000223                                -7.249289367820413+1.3643763538418412i
-0.024403987777901787     0                        0                        -8.772755678002591                                -7.371674981591567+1.3643763538418412i
-0.024083527838153512     0                        0                        -8.77599782316035                                 -7.328515743790858+1.3643763538418412i
-0.023885314397300295     0                        0                        -8.778416669907966                                -7.328515743790854+1.3643763538418412i
-0.019158805689160757     0                        0                        -8.850025359009603                                -7.212084102334258+1.3643763538418412i
-0.01899981133520945      0                        0                        -8.854192025318849                                -7.1889304256429485+1.3643763538418412i
-0.018837845318644297     0                        0                        -8.857458671605565                                -7.188930425642957+1.3643763538418412i
-0.018750000000000017     0                        0                        -8.858559013304244                                -7.183409912697265+1.3643763538418412i
-0.017399662183720743     0                        0                        -8.891010778845219                                -7.136943282758105+1.3643763538418412i
-0.016916602413356074     0                        0                        -8.903611052443486                                -7.118644243531146+1.3643763538418412i
-0.016158126490477487     0                        0                        -8.924438042433628                                -7.101153903159645+1.3643763538418412i
-0.01632286324251722      0                        0                        -8.91984397109403                                 -7.104823263362253+1.3643763538418412i
-0.016480482195504798     0                        0                        -8.913985684776693                                -7.127885707977914+1.3643763538418412i
-0.0183831721053396       0                        0                        -8.86652370503938                                 -7.165028900232702+1.3643763538418412i
-0.01798127191397647      0                        0                        -8.875391665838373                                -7.165028900232715+1.3643763538418412i
-0.017923162470365572     0                        0                        -8.878293488991222                                -7.1369432827581+1.3643763538418412i
-0.018679331477051253     0                        0                        -8.860612147656838                                -7.154871176964214+1.3643763538418412i
-0.018607756202005693     0                        0                        -8.862193682757647                                -7.154871176964212+1.3643763538418412i
0.01483926615335221       0                        0                        -8.551156859277304+1.3643763538418412i            -6.8034348359054055+1.3643763538418412i
0.014821603380149456      0                        0                        -8.551790024586834+1.3643763538418412i            -6.805239555575961+1.3643763538418412i
0.014244105046392314      0                        0                        -8.56602635181342+1.3643763538418412i             -6.804888693778525+1.3643763538418412i
0.014794869807962907      0                        0                        -8.552440789258416+1.3643763538418412i            -6.8048886937785324+1.3643763538418412i
0.01318445044908989       0                        0                        -8.593423988379051+1.3643763538418412i            -6.804888693778514+1.3643763538418412i
0.014814581897151097      0                        0                        -8.55185024467992+1.3643763538418412i             -6.80421238205095+1.3643763538418412i
0.01215166622913158       0                        0                        -8.621474547482146+1.3643763538418412i            -6.811107049022339+1.3643763538418412i
0.011930577772665346      0                        0                        -8.627723954836014+1.3643763538418412i            -6.81110704902234+1.3643763538418412i
0.011471923076003698      0                        0                        -8.64083710692636+1.3643763538418412i             -6.812930846034684+1.3643763538418412i
0.011044511286983028      0                        0                        -8.65332452195424+1.3643763538418412i             -6.821780240360374+1.3643763538418412i
0.010466457355090109      0                        0                        -8.670841830413636+1.3643763538418412i            -6.822861415920059+1.3643763538418412i
0.010233207029971825      0                        0                        -8.678256695300774+1.3643763538418412i            -6.827967227389276+1.3643763538418412i
0.008442990154695407      0                        0                        -8.737093442716992+1.3643763538418412i            -6.827186603593634+1.3643763538418412i
0.00864077922071288       0                        0                        -8.730168339078954+1.3643763538418412i            -6.827186603593637+1.3643763538418412i
0.010156402778861484      0                        0                        -8.680626121643995+1.3643763538418412i            -6.827967227389276+1.3643763538418412i
0.007475725496854796      0                        0                        -8.771728856647524+1.3643763538418412i            -6.840539130636139+1.3643763538418412i
-0.014890995657244332     0                        0                        -8.964817341352214                                -7.029135967279674+1.3643763538418412i
-0.014137754713337725     0                        0                        -8.993985017080531                                -7.02913596727966+1.3643763538418412i
-0.013402792539994463     0                        0                        -9.024467507855833                                -7.029135967279646+1.3643763538418412i
-0.013367567165035482     0                        0                        -9.025775426942396                                -7.014653354999084+1.3643763538418412i
-0.013330646679752145     0                        0                        -9.02788040539376                                 -6.99272603591019+1.3643763538418412i
-0.01309673270070244      0                        0                        -9.039037769245821                                -6.99272603591019+1.3643763538418412i
-0.011803592117633072     0                        0                        -9.106495907929116                                -6.99272603591018+1.3643763538418412i
-0.0029770886827072685    0                        0                        -9.581527529732544+1.3643763538418412i            -6.897953619982365+1.3643763538418412i