% Model:              GRACE_shield_open_thickness_2.mph
% Version:            COMSOL 5.6.0.341
% Date:               Jun 10 2021, 09:37
% Dimension:          3
% Nodes:              222
% Expressions:        2
% Description:        Magnetic Field, Magnetic Field Gradient
% Length unit:        m
% x                       y                        z                        log10(mf.Bx)                                      log10(d(laginterp(2,mf.Bx),x))
-0.2                      0                        0                        -19.528529789012232+1.3643763538418412i           -8.982593091761183
-0.18000000000000002      0                        0                        -10.467392449396645+1.3643763538418412i           -8.351665140899325+1.3643763538418412i
-0.12000000000000004      0                        0                        -7.784234008136562+1.3643763538418412i            -6.50823041992153+1.3643763538418412i
-0.10000000000000003      0                        0                        -6.98944464934834+1.3643763538418412i             -5.08132780419556+1.3643763538418412i
0.18                      0                        0                        -8.035639710806695+1.3643763538418412i            -5.842536841735218
0.2                       0                        0                        -18.847365121530878+1.3643763538418412i           -6.287512218066853+1.3643763538418412i
0.10000000000000003       0                        0                        -2.568704063944668+1.3643763538418412i            -0.34329626020257814
0.11999999999999994       0                        0                        -3.934649813356706+1.3643763538418412i            -0.7093020266326852+1.3643763538418412i
-0.16000000000000003      0                        0                        -9.358736110959624+1.3643763538418412i            -7.409137207270673+1.3643763538418412i
-0.14000000000000004      0                        0                        -8.543510966435706+1.3643763538418412i            -6.962927103360673+1.3643763538418412i
0.15999999999999998       0                        0                        -6.52353250018838+1.3643763538418412i             -4.305563792606613
0.13999999999999996       0                        0                        -5.216595830874681+1.3643763538418412i            -2.060741335032547+1.3643763538418412i
0.08999999999999997       0                        0                        -3.227246928999557+1.3643763538418412i            -1.6363761639103622
-0.043408940540525076     0                        0                        -6.686223201122575+1.3643763538418412i            -6.166667160542211+1.3643763538418412i
-0.04327281074268677      0                        0                        -6.685931052046909+1.3643763538418412i            -6.209261350892574+1.3643763538418412i
-0.04219796836882364      0                        0                        -6.684391813045295+1.3643763538418412i            -6.314456670519687+1.3643763538418412i
-0.0407052645995373       0                        0                        -6.682885175351689+1.3643763538418412i            -6.4748322236132+1.3643763538418412i
-0.04000616421634445      0                        0                        -6.682395247852795+1.3643763538418412i            -6.474832223612859+1.3643763538418412i
-0.04099683610884727      0                        0                        -6.683170858025674+1.3643763538418412i            -6.314456670519664+1.3643763538418412i
-0.045503110698260796     0                        0                        -6.690204970015898+1.3643763538418412i            -6.047275533389869+1.3643763538418412i
-0.04690858021897201      0                        0                        -6.693400946203039+1.3643763538418412i            -6.0018627842115055+1.3643763538418412i
-0.04708087023151944      0                        0                        -6.6937688773281465+1.3643763538418412i           -6.001862784211508+1.3643763538418412i
-0.047222990704216816     0                        0                        -6.694245751230379+1.3643763538418412i            -5.920214298247327+1.3643763538418412i
-0.04821447422970762      0                        0                        -6.696912610903965+1.3643763538418412i            -5.8257051284735315+1.3643763538418412i
-0.04771225122311348      0                        0                        -6.695717219003817+1.3643763538418412i            -5.883219534940397+1.3643763538418412i
-0.03994263208102675      0                        0                        -6.682293203753959+1.3643763538418412i            -6.6093148466678135+1.3643763538418412i
-0.03946388977642318      0                        0                        -6.68203066516827+1.3643763538418412i             -6.966115904935965+1.3643763538418412i
-0.038000000000000006     0                        0                        -6.681717967714243+1.3643763538418412i            -3.9803047833103182
-0.08385462908490104      0                        0                        -6.882416092849104+1.3643763538418412i            -5.742164464843866+1.3643763538418412i
-0.08226033628628285      0                        0                        -6.871726211277005+1.3643763538418412i            -5.705902959127527+1.3643763538418412i
-0.08184463681164225      0                        0                        -6.868723550473539+1.3643763538418412i            -5.694703989225289+1.3643763538418412i
-0.07292816114487718      0                        0                        -6.816298120352184+1.3643763538418412i            -5.687164518284504+1.3643763538418412i
-0.06980880233918815      0                        0                        -6.798525318761762+1.3643763538418412i            -5.665072335350695+1.3643763538418412i
-0.06513793776336144      0                        0                        -6.77199697423913+1.3643763538418412i             -5.669522001168046+1.3643763538418412i
-0.06343259285588959      0                        0                        -6.763047209985144+1.3643763538418412i            -5.672887962329704+1.3643763538418412i
-0.0600406868276461       0                        0                        -6.745324970593388+1.3643763538418412i            -5.686298316303086+1.3643763538418412i
-0.06533398457339556      0                        0                        -6.7728731875713+1.3643763538418412i              -5.665072335350695+1.3643763538418412i
-0.05125749341882088      0                        0                        -6.706886118016074+1.3643763538418412i            -5.75749526626323+1.3643763538418412i
-0.055849510016993426     0                        0                        -6.725644148000079+1.3643763538418412i            -5.733868509353462+1.3643763538418412i
-0.058636143446810646     0                        0                        -6.738366488151016+1.3643763538418412i            -5.706044964165607+1.3643763538418412i
-0.05738343320977876      0                        0                        -6.732544887508034+1.3643763538418412i            -5.706044964165612+1.3643763538418412i
-0.05914963052971636      0                        0                        -6.740914256713541+1.3643763538418412i            -5.6862983163030885+1.3643763538418412i
-0.033687457143581845     0                        0                        -8.904194703981616                                -7.808121474689732+1.3643763538418412i
-0.03350000000000003      0                        0                        -8.905211579693523                                -7.8081214746897265+1.3643763538418412i
-0.03415880836142732      0                        0                        -8.90164829388879                                 -7.808121474689721+1.3643763538418412i
-0.036000000000000004     0                        0                        -8.898218353454784                                -3.9802350570655216
-0.03203728825906363      0                        0                        -8.91972681675553                                 -7.553567910007854+1.3643763538418412i
-0.032016883677486896     0                        0                        -8.922675468861602                                -7.381457081765309+1.3643763538418412i
-0.03208666328832735      0                        0                        -8.919228848594063                                -7.553567910007851+1.3643763538418412i
-0.03118132019694836      0                        0                        -8.935480149722403                                -7.381457081765278+1.3643763538418412i
-0.031000000000000055     0                        0                        -8.938309374192395                                -7.381457081765268+1.3643763538418412i
-0.029829458849941676     0                        0                        -8.963495054828854                                -7.226398132802216+1.3643763538418412i
-0.028953067532145355     0                        0                        -8.985361769373279                                -7.151989668704303+1.3643763538418412i
-0.03068883199211464      0                        0                        -8.944824210371932                                -7.258438471528706+1.3643763538418412i
-0.03063599928472599      0                        0                        -8.944783156993187                                -7.226398132802206+1.3643763538418412i
-0.02833487066358306      0                        0                        -9.004051127273737                                -7.151989668704302+1.3643763538418412i
-0.026014432900124396     0                        0                        -9.103076765807382                                -7.037780934074245+1.3643763538418412i
-0.025999999999999995     0                        0                        -9.106252131571576                                -7.030795255249192+1.3643763538418412i
-0.02645740928045412      0                        0                        -9.078797359344174                                -7.073831197375778+1.3643763538418412i
-0.028002301756212572     0                        0                        -9.016603776348573                                -7.086024916376721+1.3643763538418412i
-0.026823194439490383     0                        0                        -9.063018941238834                                -7.073831197375792+1.3643763538418412i
0.048865428686766105      0                        0                        -5.232359481247621+1.3643763538418412i            -3.7827055137151064+1.3643763538418412i
0.04913734474851644       0                        0                        -5.226281070524285+1.3643763538418412i            -3.742046921590343+1.3643763538418412i
0.04955726892578011       0                        0                        -5.2185365267164565+1.3643763538418412i           -3.6216521274859184+1.3643763538418412i
0.06694337819444318       0                        0                        -4.753815259205922+1.3643763538418412i            -2.8533784683669694+1.3643763538418412i
0.06927304934450274       0                        0                        -4.656443734398904+1.3643763538418412i            -2.845960560082413+1.3643763538418412i
0.07064832104276553       0                        0                        -4.614804936005453+1.3643763538418412i            -2.873893852564992+1.3643763538418412i
0.07090658047362475       0                        0                        -4.624357955742902+1.3643763538418412i            -2.6076030480892123+1.3643763538418412i
0.07266190144417539       0                        0                        -4.551580172121619+1.3643763538418412i            -2.6076030480892123+1.3643763538418412i
0.0708717304042436        0                        0                        -4.609203543025803+1.3643763538418412i            -2.6647890472969933+1.3643763538418412i
0.05377871262599265       0                        0                        -5.143078238152361+1.3643763538418412i            -3.4621535202678246+1.3643763538418412i
0.05499945020972796       0                        0                        -5.118365747985419+1.3643763538418412i            -3.462153520267825+1.3643763538418412i
0.055043770999881336      0                        0                        -5.117902546989345+1.3643763538418412i            -3.306340410814578+1.3643763538418412i
0.05518481507153922       0                        0                        -5.113951390704309+1.3643763538418412i            -3.3063404108145784+1.3643763538418412i
0.058302263493497486      0                        0                        -5.031460043332432+1.3643763538418412i            -3.1819798639420402+1.3643763538418412i
0.058823240119501186      0                        0                        -5.032976838048551+1.3643763538418412i            -3.143554291858047+1.3643763538418412i
0.05957516629680537       0                        0                        -5.008371942102458+1.3643763538418412i            -3.143554291858047+1.3643763538418412i
0.061941279614032674      0                        0                        -4.92912250203171+1.3643763538418412i             -2.9783820272768637+1.3643763538418412i
0.06449099316221918       0                        0                        -4.840054570062988+1.3643763538418412i            -2.978382027276864+1.3643763538418412i
0.06537191032594813       0                        0                        -4.813087207453032+1.3643763538418412i            -2.978382027276864+1.3643763538418412i
0.045189673198293256      0                        0                        -5.276262936579074+1.3643763538418412i            -3.959486324007115+1.3643763538418412i
0.04614672879006049       0                        0                        -5.266951902399725+1.3643763538418412i            -3.782705513715106+1.3643763538418412i
0.04691754074874996       0                        0                        -5.256861139692821+1.3643763538418412i            -3.7827055137151064+1.3643763538418412i
0.04077432310780349       0                        0                        -5.306630021474266+1.3643763538418412i            -4.386614927619101+1.3643763538418412i
0.041508641905585286      0                        0                        -5.303667042777478+1.3643763538418412i            -4.321945256929446+1.3643763538418412i
0.0425451318940849        0                        0                        -5.297689683816634+1.3643763538418412i            -4.182872811578099+1.3643763538418412i
0.042834730734533505      0                        0                        -5.295386726644344+1.3643763538418412i            -4.127729482531431+1.3643763538418412i
0.03985546278431604       0                        0                        -5.3101011492472+1.3643763538418412i              -4.559825345617949+1.3643763538418412i
0.040501705729859505      0                        0                        -5.30761595086452+1.3643763538418412i             -4.386614927619102+1.3643763538418412i
0.04351984878733689       0                        0                        -5.291031332631807+1.3643763538418412i            -4.127729482531432+1.3643763538418412i
0.044092479791070976      0                        0                        -5.286259082786903+1.3643763538418412i            -3.959486324007137+1.3643763538418412i
0.03956942401661451       0                        0                        -5.31080072500925+1.3643763538418412i             -4.559825345617911+1.3643763538418412i
0.038930933582649846      0                        0                        -5.311467852257125+1.3643763538418412i            -4.860692649503411+1.3643763538418412i
0.03799999999999998       0                        0                        -5.312662849261587+1.3643763538418412i            -2.6138531577169566+1.3643763538418412i
0.03465193662880256       0                        0                        -8.32670772795049+1.3643763538418412i             -7.6629049183989375+1.3643763538418412i
0.03599999999999995       0                        0                        -8.323925026636736+1.3643763538418412i            -2.6145992701144687+1.3643763538418412i
0.03401208713454912       0                        0                        -8.327637342889098+1.3643763538418412i            -7.7529908859792425+1.3643763538418412i
0.03430440155735037       0                        0                        -8.327404248561807+1.3643763538418412i            -7.66290491839887+1.3643763538418412i
0.03218851588921484       0                        0                        -8.329741386406292+1.3643763538418412i            -7.963027616923253+1.3643763538418412i
0.03335115942328576       0                        0                        -8.328568224511121+1.3643763538418412i            -7.96302761692338+1.3643763538418412i
0.033664001991317694      0                        0                        -8.327849916882899+1.3643763538418412i            -7.822789720463029+1.3643763538418412i
0.03142201945467615       0                        0                        -8.330587858556278+1.3643763538418412i            -8.173395551154986+1.3643763538418412i
0.03133537317443441       0                        0                        -8.3306419033127+1.3643763538418412i              -8.17339555115493+1.3643763538418412i
0.03042114426105158       0                        0                        -8.33073537187205+1.3643763538418412i             -8.566381465484751+1.3643763538418412i
0.02636812670564917       0                        0                        -8.326957013330933+1.3643763538418412i            -7.82035078136544
0.028306316975452717      0                        0                        -8.329207378131386+1.3643763538418412i            -7.98035557354077
0.030173158043110077      0                        0                        -8.330679716279496+1.3643763538418412i            -8.373175045060867
0.02943973659326607       0                        0                        -8.330057363041387+1.3643763538418412i            -8.198274611535025
0.029508873952396042      0                        0                        -8.329968332555548+1.3643763538418412i            -8.08537182235039
0.02869801062478458       0                        0                        -8.329621256625789+1.3643763538418412i            -8.198274611534872
0.025999999999999968      0                        0                        -8.326667975339111+1.3643763538418412i            -7.794381311383026
0.02601993757336557       0                        0                        -8.326507051691856+1.3643763538418412i            -7.789685794783462
0.026043887058021686      0                        0                        -8.326542854710308+1.3643763538418412i            -7.789685794783525
-0.016000000000000042     0                        0                        -9.618424936217204+1.3643763538418412i            -7.128411432952452+1.3643763538418412i
-0.015522151730242545     0                        0                        -9.558606459792836+1.3643763538418412i            -7.128411432952367+1.3643763538418412i
-0.015123939736432168     0                        0                        -9.515696303665143+1.3643763538418412i            -7.130270714892504+1.3643763538418412i
-0.0150691062232719       0                        0                        -9.495445664075039+1.3643763538418412i            -7.1308912417758386+1.3643763538418412i
-0.015000000000000041     0                        0                        -9.488552718311976+1.3643763538418412i            -7.177653907197289+1.3643763538418412i
0.015949862543564564      0                        0                        -8.357603251811573+1.3643763538418412i            -6.863616465020729+1.3643763538418412i
0.01599999999999993       0                        0                        -8.357087621054854+1.3643763538418412i            -6.8759546906251625+1.3643763538418412i
0.01522734115022667       0                        0                        -8.367501573633277+1.3643763538418412i            -6.863616465020698+1.3643763538418412i
0.014999999999999986      0                        0                        -8.370564066357986+1.3643763538418412i            -6.811338711287542+1.3643763538418412i
-0.03700040155880105      0                        0                        -6.985028627847308+1.3643763538418412i            -3.9803047833103213
0.03700039600807309       0                        0                        -5.613580359734517+1.3643763538418412i            -2.6145992701144687+1.3643763538418412i
-0.025928090036331786     0                        0                        -9.107894384150113                                -6.991664458136316+1.3643763538418412i
-0.02471555438507103      0                        0                        -9.183903462587198                                -6.9776392879081754+1.3643763538418412i
-0.024500000000000022     0                        0                        -9.199222890469029                                -6.953990089678726+1.3643763538418412i
-0.024892108727430168     0                        0                        -9.171073387324276                                -6.991664458136317+1.3643763538418412i
-0.023692137677763292     0                        0                        -9.265531257772185                                -6.937340189661118+1.3643763538418412i
-0.023130952422576845     0                        0                        -9.320792318606005                                -6.937340189661106+1.3643763538418412i
-0.023830330934231814     0                        0                        -9.252937648647258                                -6.93734018966112+1.3643763538418412i
-0.022205855700170946     0                        0                        -9.427621701862883                                -6.944632458017095+1.3643763538418412i
-0.022070997850166113     0                        0                        -9.448249060266626                                -6.945123206448818+1.3643763538418412i
-0.02125297686103686      0                        0                        -9.579339973363604                                -6.9451232064488195+1.3643763538418412i
-0.020576968460482598     0                        0                        -9.726751683519375                                -6.956238964952929+1.3643763538418412i
-0.020357092374496316     0                        0                        -9.787045565252187                                -6.9562389649529335+1.3643763538418412i
-0.01974999999999999      0                        0                        -10.010432024895502                               -6.985878661535163+1.3643763538418412i
-0.01905265507633991      0                        0                        -10.618437223380626                               -6.990246481563404+1.3643763538418412i
-0.018836053480781212     0                        0                        -11.716090435314714                               -6.990246481563394+1.3643763538418412i
-0.018789835812620087     0                        0                        -11.552214729445803+1.3643763538418412i           -6.990246481563391+1.3643763538418412i
-0.018750000000000017     0                        0                        -11.300273965512346+1.3643763538418412i           -7.033176307701831+1.3643763538418412i
-0.018705893861179795     0                        0                        -10.851278064832686+1.3643763538418412i           -7.044524774125482+1.3643763538418412i
-0.018659232599999298     0                        0                        -10.737660034307794+1.3643763538418412i           -7.044524774125481+1.3643763538418412i
-0.017426592146016107     0                        0                        -9.883332036189433+1.3643763538418412i            -7.04684330259915+1.3643763538418412i
-0.017375000000000057     0                        0                        -9.868221514064109+1.3643763538418412i            -7.080798789194678+1.3643763538418412i
-0.01717941017927735      0                        0                        -9.819047644739058+1.3643763538418412i            -7.0807987891946755+1.3643763538418412i
-0.016325062231333176     0                        0                        -9.663885818075514+1.3643763538418412i            -7.081414699966018+1.3643763538418412i
-0.016123935225043518     0                        0                        -9.631709357996439+1.3643763538418412i            -7.081414699966014+1.3643763538418412i
-0.016106857579179817     0                        0                        -9.6341604778639+1.3643763538418412i              -7.095976897340061+1.3643763538418412i
-0.01489099565724436      0                        0                        -9.477464154040899+1.3643763538418412i            -7.144227968850966+1.3643763538418412i
-0.014137754713337808     0                        0                        -9.412166637504566+1.3643763538418412i            -7.144227968850891+1.3643763538418412i
-0.013402792539994435     0                        0                        -9.356708669999604+1.3643763538418412i            -7.144227968850816+1.3643763538418412i
-0.013367567165035454     0                        0                        -9.352731392919267+1.3643763538418412i            -7.126662528522009+1.3643763538418412i
0.014839266153352126      0                        0                        -8.373163554751955+1.3643763538418412i            -6.811929664485848+1.3643763538418412i
0.014821603380149456      0                        0                        -8.372984608130267+1.3643763538418412i            -6.801054544447834+1.3643763538418412i
0.014814581897151152      0                        0                        -8.37260703076678+1.3643763538418412i             -6.792186246591882+1.3643763538418412i
-0.013330646679752145     0                        0                        -9.350396833977973+1.3643763538418412i            -7.113968262031866+1.3643763538418412i
-0.01309673270070244      0                        0                        -9.333231272642598+1.3643763538418412i            -7.113968262031865+1.3643763538418412i
-0.011803592117633072     0                        0                        -9.24892529167191+1.3643763538418412i             -7.113968262031863+1.3643763538418412i
-0.011603875216225024     0                        0                        -9.233592733884494+1.3643763538418412i            -7.061392447300757+1.3643763538418412i
-0.01151175786091016      0                        0                        -9.228956431509836+1.3643763538418412i            -7.028716945689282+1.3643763538418412i
0.0142480752266044        0                        0                        -8.381981879450711+1.3643763538418412i            -6.793256525552195+1.3643763538418412i
0.014794869807963046      0                        0                        -8.37286663596266+1.3643763538418412i             -6.793256525552199+1.3643763538418412i
0.013182767043854848      0                        0                        -8.400304163636282+1.3643763538418412i            -6.7769071516098345+1.3643763538418412i
0.012152147599427676      0                        0                        -8.41952872675298+1.3643763538418412i             -6.776907151609821+1.3643763538418412i
0.011928311584406603      0                        0                        -8.423818943108087+1.3643763538418412i            -6.776907151609822+1.3643763538418412i
0.011471923076003698      0                        0                        -8.432791628173621+1.3643763538418412i            -6.773092511490784+1.3643763538418412i
0.011044511286983028      0                        0                        -8.441359088352904+1.3643763538418412i            -6.772929483813305+1.3643763538418412i
0.010466457355090164      0                        0                        -8.45345381626189+1.3643763538418412i             -6.773073977395636+1.3643763538418412i
-0.011125034168174175     0                        0                        -9.208314726160191+1.3643763538418412i            -7.028125433832351+1.3643763538418412i
-0.009687098123136034     0                        0                        -9.123569442688819+1.3643763538418412i            -7.017018731579208+1.3643763538418412i
-0.009600481287675933     0                        0                        -9.118788159136646+1.3643763538418412i            -7.017018731579209+1.3643763538418412i
-0.008649510889443962     0                        0                        -9.068124513871277+1.3643763538418412i            -7.004692238661288+1.3643763538418412i
-0.011206993378214791     0                        0                        -9.208459014663573+1.3643763538418412i            -7.028716945689283+1.3643763538418412i
-0.007810257087372985     0                        0                        -9.027868884018181+1.3643763538418412i            -7.004692238661277+1.3643763538418412i
-0.007808090734539447     0                        0                        -9.027769654579986+1.3643763538418412i            -7.004692238661279+1.3643763538418412i
-0.007669517918037799     0                        0                        -9.021903358375319+1.3643763538418412i            -6.9803881060040265+1.3643763538418412i
0.005981056856645628      0                        0                        -8.554921590194013+1.3643763538418412i            -6.815716051308721+1.3643763538418412i
0.007475725496854768      0                        0                        -8.518987535856658+1.3643763538418412i            -6.792076532052532+1.3643763538418412i
0.008442990154695351      0                        0                        -8.49705616177196+1.3643763538418412i             -6.777228871628375+1.3643763538418412i