% Model:              GRACE_stlshield_2.mph
% Version:            COMSOL 5.6.0.341
% Date:               Jul 9 2021, 14:49
% Dimension:          3
% Nodes:              294
% Expressions:        2
% Description:        Magnetic Field, Magnetic Field Gradient
% Length unit:        m
% x                       y                        z                        log10(mf.Bx)                                      log10(d(laginterp(2,mf.Bx),x))
-0.12000000000000004      0                        0                        -7.760862733521617+1.3643763538418412i            -5.870264247188808+1.3643763538418412i
-0.10000000000000003      0                        0                        -6.844089170845784+1.3643763538418412i            -4.8797946787634805+1.3643763538418412i
-0.2                      0                        0                        -19.931243091375293                               -9.008164328899959
-0.18000000000000002      0                        0                        -10.48311031783645+1.3643763538418412i            -8.814006038524317+1.3643763538418412i
0.10000000000000003       0                        0                        -2.5967413410294014+1.3643763538418412i           -0.3715908582835539
0.11999999999999994       0                        0                        -3.9610170338644246+1.3643763538418412i           -1.7333395823985167
0.18                      0                        0                        -8.08041874096722+1.3643763538418412i             -4.724026667533341+1.3643763538418412i
0.2                       0                        0                        -17.60901156491949+1.3643763538418412i            -6.32439475682559+1.3643763538418412i
-0.14000000000000004      0                        0                        -8.539938636242569+1.3643763538418412i            -6.651149887368191+1.3643763538418412i
-0.16000000000000003      0                        0                        -9.3639662917769+1.3643763538418412i              -7.659377161187652+1.3643763538418412i
0.13999999999999996       0                        0                        -5.242457597882925+1.3643763538418412i            -3.01793908586081
0.15999999999999998       0                        0                        -6.567345012032841+1.3643763538418412i            -3.3825563767601348+1.3643763538418412i
0.08999999999999997       0                        0                        -3.3914890714666073+1.3643763538418412i           -2.736503207093146+1.3643763538418412i
-0.03836499999999998      0                        0                        -6.2209479523962345+1.3643763538418412i           -3.437667400730168+1.3643763538418412i
-0.03834890428950943      0                        0                        -6.220939101430605+1.3643763538418412i            -6.1184473355032525+1.3643763538418412i
-0.03830568614182142      0                        0                        -6.22333011274987+1.3643763538418412i             -7.240629737030182+1.3643763538418412i
-0.038111230918631084     0                        0                        -6.2233219975309035+1.3643763538418412i           -7.240629737018709+1.3643763538418412i
-0.03802916051970906      0                        0                        -6.2214944119782905+1.3643763538418412i           -5.766896161072903+1.3643763538418412i
-0.038000000000000006     0                        0                        -6.221458340845074+1.3643763538418412i            -5.7668961610729275+1.3643763538418412i
0.03799999999999998       0                        0                        -5.566057114964138+1.3643763538418412i            -5.0546618221162865
0.03803534677448636       0                        0                        -5.565785582554447+1.3643763538418412i            -4.835599738160994
0.03806340704168129       0                        0                        -5.565851060447523+1.3643763538418412i            -4.835599738160917
0.03828876651141733       0                        0                        -5.566377289151252+1.3643763538418412i            -4.835599738160142
0.03836499999999998       0                        0                        -5.565293514250191+1.3643763538418412i            -2.4549944322399537+1.3643763538418412i
0.03928949418001809       0                        0                        -5.302702353313492+1.3643763538418412i            -5.522008342245014+1.3643763538418412i
0.039657821975330826      0                        0                        -5.302577594542438+1.3643763538418412i            -5.186313698258722+1.3643763538418412i
0.03970164101709622       0                        0                        -5.302487131058097+1.3643763538418412i            -4.912253632221619+1.3643763538418412i
0.03979021101652608       0                        0                        -5.302365020057048+1.3643763538418412i            -4.7070628038530105+1.3643763538418412i
0.03900000000000001       0                        0                        -5.302778238341969+1.3643763538418412i            -5.522008342243824+1.3643763538418412i
-0.03917537736004778      0                        0                        -6.428690587667105+1.3643763538418412i            -6.790569012299772+1.3643763538418412i
-0.039000000000000035     0                        0                        -6.428655221323673+1.3643763538418412i            -7.92978349680717
-0.03923772264526221      0                        0                        -6.42870235601198+1.3643763538418412i             -6.790569012308276+1.3643763538418412i
-0.039289393483143864     0                        0                        -6.4284766637066895+1.3643763538418412i           -6.400033220706186+1.3643763538418412i
-0.03983083356712602      0                        0                        -6.428627641537491+1.3643763538418412i            -6.314006759593326+1.3643763538418412i
0.039804050220952014      0                        0                        -5.302341350735078+1.3643763538418412i            -4.707062803852858+1.3643763538418412i
0.039829963093763354      0                        0                        -5.302304938891865+1.3643763538418412i            -4.815554509189633+1.3643763538418412i
0.04011062995666151       0                        0                        -5.301823372638786+1.3643763538418412i            -4.72756613270509+1.3643763538418412i
0.040504668780749015      0                        0                        -5.301285315809643+1.3643763538418412i            -4.672628030971124+1.3643763538418412i
0.04051214438906903       0                        0                        -5.301241903792303+1.3643763538418412i            -4.596509094427448+1.3643763538418412i
0.04053987350520791       0                        0                        -5.3011808907556635+1.3643763538418412i           -4.596509094427504+1.3643763538418412i
0.04041399611414476       0                        0                        -5.301236696651778+1.3643763538418412i            -4.620781167740327+1.3643763538418412i
0.04023477204858125       0                        0                        -5.301621136163038+1.3643763538418412i            -4.72756613270515+1.3643763538418412i
-0.04014547467323426      0                        0                        -6.428805596305113+1.3643763538418412i            -6.314006759588589+1.3643763538418412i
-0.0404224871572777       0                        0                        -6.428962329452184+1.3643763538418412i            -6.314006759584538+1.3643763538418412i
-0.0408803358799959       0                        0                        -6.429362531148831+1.3643763538418412i            -6.11965066877851+1.3643763538418412i
-0.040561250366850043     0                        0                        -6.4290870839102645+1.3643763538418412i           -6.270709630221788+1.3643763538418412i
-0.04051745479450228      0                        0                        -6.428984042434196+1.3643763538418412i            -6.174170772402165+1.3643763538418412i
-0.040965873931856966     0                        0                        -6.4294531023306245+1.3643763538418412i           -6.010328484942036+1.3643763538418412i
-0.040952805444695595     0                        0                        -6.429426753165193+1.3643763538418412i            -6.119650668778184+1.3643763538418412i
-0.041161047429926406     0                        0                        -6.429424762643859+1.3643763538418412i            -5.941079114792837+1.3643763538418412i
0.041085633165699964      0                        0                        -5.299561830409134+1.3643763538418412i            -4.404631125595223+1.3643763538418412i
0.04135154876466213       0                        0                        -5.298747868457657+1.3643763538418412i            -4.341200602334036+1.3643763538418412i
0.04199251249317623       0                        0                        -5.2962213567070995+1.3643763538418412i           -4.231756825789787+1.3643763538418412i
0.04055886881592405       0                        0                        -5.301094183422258+1.3643763538418412i            -4.471771270259111+1.3643763538418412i
0.04255591256166916       0                        0                        -5.293392242934828+1.3643763538418412i            -4.23175682578982+1.3643763538418412i
0.043537461139910694      0                        0                        -5.287789779616711+1.3643763538418412i            -4.1600879660088985+1.3643763538418412i
0.04381566480191851       0                        0                        -5.285570767169546+1.3643763538418412i            -4.043041536862398+1.3643763538418412i
0.04350706348890282       0                        0                        -5.287966959632686+1.3643763538418412i            -4.160087966008902+1.3643763538418412i
-0.041710637697932484     0                        0                        -6.43012965732272+1.3643763538418412i             -5.953466588182+1.3643763538418412i
-0.04131480631447779      0                        0                        -6.429630386257255+1.3643763538418412i            -5.94107911479278+1.3643763538418412i
-0.04246583955614874      0                        0                        -6.431077500168895+1.3643763538418412i            -5.893287522765298+1.3643763538418412i
-0.04202042801962155      0                        0                        -6.430533039681921+1.3643763538418412i            -5.95346658818099+1.3643763538418412i
-0.04268362728742581      0                        0                        -6.43140391576197+1.3643763538418412i             -5.893287522765781+1.3643763538418412i
-0.0427636606581451       0                        0                        -6.43152392973637+1.3643763538418412i             -5.893287522765928+1.3643763538418412i
-0.043205678746557064     0                        0                        -6.432495319819368+1.3643763538418412i            -5.770970923579465+1.3643763538418412i
-0.04388138540219569      0                        0                        -6.4337308425881075+1.3643763538418412i           -5.711120451864997+1.3643763538418412i
0.044153448093644077      0                        0                        -5.2829115599841865+1.3643763538418412i           -4.038504640606345+1.3643763538418412i
0.04451608671257473       0                        0                        -5.280155513547067+1.3643763538418412i            -4.038504640606362+1.3643763538418412i
0.04458654616644289       0                        0                        -5.2796220463792265+1.3643763538418412i           -4.038504640606362+1.3643763538418412i
0.0452099504078102        0                        0                        -5.274244895634299+1.3643763538418412i            -3.969806410939025+1.3643763538418412i
0.045823395650988946      0                        0                        -5.26841554115003+1.3643763538418412i             -3.8583421792269617+1.3643763538418412i
0.04462817808733152       0                        0                        -5.279368019952358+1.3643763538418412i            -3.9698064109390243+1.3643763538418412i
0.04624009574727478       0                        0                        -5.263838398212757+1.3643763538418412i            -3.8608185813769644+1.3643763538418412i
-0.04616792824493868      0                        0                        -6.439681711676785+1.3643763538418412i            -5.561586846021806+1.3643763538418412i
-0.04502295193019762      0                        0                        -6.436497769163076+1.3643763538418412i            -5.621394310277128+1.3643763538418412i
-0.04469088883652811      0                        0                        -6.435638005323571+1.3643763538418412i            -5.623891150552282+1.3643763538418412i
-0.047870611030226745     0                        0                        -6.445657580339954+1.3643763538418412i            -5.509864502457043+1.3643763538418412i
-0.046999787400079984     0                        0                        -6.4424188505225715+1.3643763538418412i           -5.561586846021806+1.3643763538418412i
-0.048105655784013296     0                        0                        -6.4465537738842285+1.3643763538418412i           -5.499805583955614+1.3643763538418412i
0.0470481786102844        0                        0                        -5.255051027843181+1.3643763538418412i            -3.8608185813769533+1.3643763538418412i
0.048849747326255744      0                        0                        -5.232190354146886+1.3643763538418412i            -3.753766623904929+1.3643763538418412i
0.05057993883072076       0                        0                        -5.202427050082417+1.3643763538418412i            -3.6194490347791364+1.3643763538418412i
0.04768401269224909       0                        0                        -5.247284322854809+1.3643763538418412i            -3.7997054571315507+1.3643763538418412i
0.05225412234201643       0                        0                        -5.175449242106677+1.3643763538418412i            -3.6194490347791373+1.3643763538418412i
0.05297028157461331       0                        0                        -5.161965310686551+1.3643763538418412i            -3.5289503125377797+1.3643763538418412i
0.05461988646342425       0                        0                        -5.132233025324898+1.3643763538418412i            -3.5289503125377806+1.3643763538418412i
0.06560402262151344       0                        0                        -4.815726596458261+1.3643763538418412i            -2.9540086956220795+1.3643763538418412i
0.06593681940872492       0                        0                        -4.814974026533594+1.3643763538418412i            -2.7613748862867853+1.3643763538418412i
0.06344124431193687       0                        0                        -4.890786070505811+1.3643763538418412i            -3.0880585363916513+1.3643763538418412i
0.06980426276774476       0                        0                        -4.657352463387759+1.3643763538418412i            -2.7613748862867857+1.3643763538418412i
0.07047315145353672       0                        0                        -4.6334723863645575+1.3643763538418412i           -2.6081121828347933+1.3643763538418412i
0.07390058202833022       0                        0                        -4.498768282222572+1.3643763538418412i            -2.438373211847027+1.3643763538418412i
0.05819932091006519       0                        0                        -5.041699023563583+1.3643763538418412i            -3.300168866635922+1.3643763538418412i
0.060165170931317236      0                        0                        -4.992065569061506+1.3643763538418412i            -3.088058536391651+1.3643763538418412i
0.054970631449515195      0                        0                        -5.1189011155510125+1.3643763538418412i           -3.3692105819858806+1.3643763538418412i
0.06286398499672574       0                        0                        -4.90700290109112+1.3643763538418412i             -3.0880585363916513+1.3643763538418412i
-0.05217519332166906      0                        0                        -6.465018600111656+1.3643763538418412i            -5.369467509791971+1.3643763538418412i
-0.05191122587534752      0                        0                        -6.463506305041774+1.3643763538418412i            -5.432408532865241+1.3643763538418412i
-0.050201915576211315     0                        0                        -6.455604143183378+1.3643763538418412i            -5.4324085328653+1.3643763538418412i
-0.049416906430033714     0                        0                        -6.451904065128621+1.3643763538418412i            -5.445321659142776+1.3643763538418412i
-0.04885754648339752      0                        0                        -6.449452021799132+1.3643763538418412i            -5.499805583955797+1.3643763538418412i
-0.05488506757837827      0                        0                        -6.4803447686976+1.3643763538418412i              -5.344667464327862+1.3643763538418412i
-0.053714630135117264     0                        0                        -6.4734305456728185+1.3643763538418412i           -5.369467509791993+1.3643763538418412i
-0.056003388462622705     0                        0                        -6.486959822166072+1.3643763538418412i            -5.346848286853501+1.3643763538418412i
-0.056313812897664794     0                        0                        -6.488686191346643+1.3643763538418412i            -5.3222245760341+1.3643763538418412i
-0.058186248949577746     0                        0                        -6.500854085067535+1.3643763538418412i            -5.301721877781471+1.3643763538418412i
-0.058116977126080244     0                        0                        -6.500571614894605+1.3643763538418412i            -5.308113625644307+1.3643763538418412i
-0.05955175633508422      0                        0                        -6.510337034156113+1.3643763538418412i            -5.301721877781454+1.3643763538418412i
-0.06191361794675879      0                        0                        -6.5271375611424665+1.3643763538418412i           -5.301745064617261+1.3643763538418412i
0.07422598629857347       0                        0                        -4.482823959428098+1.3643763538418412i            -2.438373211847027+1.3643763538418412i
0.07475872812349804       0                        0                        -4.457921561996359+1.3643763538418412i            -2.4383732118470265+1.3643763538418412i
0.05483368851013448       0                        0                        -5.120727427518784+1.3643763538418412i            -3.4943924985470773+1.3643763538418412i
-0.07330587634555805      0                        0                        -6.617104655818059+1.3643763538418412i            -5.3247522671307985+1.3643763538418412i
-0.07078301562743763      0                        0                        -6.596189413668753+1.3643763538418412i            -5.3282374059482684+1.3643763538418412i
-0.08117503066923588      0                        0                        -6.684414386570724+1.3643763538418412i            -5.368876856497201+1.3643763538418412i
-0.07494878639499919      0                        0                        -6.630644427127154+1.3643763538418412i            -5.3499325126254496+1.3643763538418412i
-0.07400358995566311      0                        0                        -6.622406332558207+1.3643763538418412i            -5.332998640100182+1.3643763538418412i
-0.06823165017167818      0                        0                        -6.576124472343164+1.3643763538418412i            -5.3282374059482605+1.3643763538418412i
-0.06813239506727395      0                        0                        -6.57520080227024+1.3643763538418412i             -5.305606143661137+1.3643763538418412i
-0.05712550255047577      0                        0                        -6.493915944637398+1.3643763538418412i            -5.308113625644483+1.3643763538418412i
-0.0569334184614457       0                        0                        -6.492638214904235+1.3643763538418412i            -5.30811362564452+1.3643763538418412i
-0.05642381475926081      0                        0                        -6.489387641216957+1.3643763538418412i            -5.3222245760341+1.3643763538418412i
-0.06735966097173526      0                        0                        -6.569002025878362+1.3643763538418412i            -5.3056061436611355+1.3643763538418412i
-0.06396509515782783      0                        0                        -6.542372428259517+1.3643763538418412i            -5.301745064617241+1.3643763538418412i
-0.0285128897203841       0                        0                        -9.025847263918378                                -6.8527745994351745+1.3643763538418412i
-0.02845279935343145      0                        0                        -9.037992608871267                                -6.952472183683071+1.3643763538418412i
-0.029492831048295753     0                        0                        -8.995896133011632                                -6.974301180981386+1.3643763538418412i
-0.029409726173197204     0                        0                        -8.985026287053854                                -7.016346941736204+1.3643763538418412i
0.031101623743436863      0                        0                        -7.884278861251873                                -5.965704687567248
0.03129882100571035       0                        0                        -7.876635720776233                                -5.996867716901089
0.029562050918072458      0                        0                        -7.936600014396744                                -6.031043131270038
0.03103226199110226       0                        0                        -7.888046785163406                                -6.031043131270279
0.02867867249130468       0                        0                        -7.968765718960517                                -6.032000490859291
0.03130683939522058       0                        0                        -7.8763717793937795                               -5.9968677169010896
0.03153671779629383       0                        0                        -7.868872295039646                                -5.996867716901104
0.03212489751697367       0                        0                        -7.855874750093295                                -6.114475409292221
0.037096951949674384      0                        0                        -7.777538420108031                                -6.498273859848741
0.03736500000000001       0                        0                        -7.775329618776131                                -6.498273859848349
0.034479966926033084      0                        0                        -7.798439542847218                                -6.425388087910742
0.03527011990664025       0                        0                        -7.790413018896289                                -6.42538808791038
0.03425168994278177       0                        0                        -7.809872917332468                                -6.160540778064164
0.033971765096500295      0                        0                        -7.815329027084489                                -6.16054077806407
-0.030881977903337188     0                        0                        -8.937482929396579                                -6.808493164054522+1.3643763538418412i
-0.03006460728037233      0                        0                        -8.970552326943011                                -6.974301180981065+1.3643763538418412i
-0.033480465071169696     0                        0                        -8.837502057920616                                -7.1483223390485255+1.3643763538418412i
-0.03190088271088318      0                        0                        -8.88335407660055                                 -6.851760931087088+1.3643763538418412i
-0.031422969523201255     0                        0                        -8.906269820661912                                -6.851760931087104+1.3643763538418412i
-0.03182278340640099      0                        0                        -8.887017228362442                                -6.851760931087092+1.3643763538418412i
-0.02788841032331324      0                        0                        -9.081584652745013                                -7.132207820646663+1.3643763538418412i
-0.025999999999999995     0                        0                        -9.161494432443384                                -7.132207820645482+1.3643763538418412i
-0.027900669199419248     0                        0                        -9.068217951214677                                -6.95247218368306+1.3643763538418412i
-0.028315866085042773     0                        0                        -9.045294910121669                                -6.952472183683069+1.3643763538418412i
0.02717546453162467       0                        0                        -8.026473569180066                                -5.9973653725098055
0.027788042735146234      0                        0                        -8.00245714310894                                 -6.037897479008991
0.027994491136371202      0                        0                        -7.994271435700573                                -6.037897479008904
0.026700076862893052      0                        0                        -8.049131493886627                                -5.997365372509551
0.025999999999999968      0                        0                        -8.078778828380532                                -6.058996769824552
0.02601064684847665       0                        0                        -8.079975281973475                                -6.03646097352644
-0.03415240926550464      0                        0                        -8.823465518050016                                -7.14832233904858+1.3643763538418412i
-0.03382378888250054      0                        0                        -8.83027354955363                                 -7.148322339048554+1.3643763538418412i
-0.03736500000000004      0                        0                        -8.786941453175643                                -7.192118209533974+1.3643763538418412i
-0.03689048627824082      0                        0                        -8.79512500203789                                 -7.1921182095340335+1.3643763538418412i
-0.03504214368157549      0                        0                        -8.807404087560034                                -7.220811028428068+1.3643763538418412i
-0.03471072094343858      0                        0                        -8.81299589976481                                 -7.220811028428194+1.3643763538418412i
-0.015914667077825906     0                        0                        -9.411424808225263                                -7.881627391231491+1.3643763538418412i
-0.015015850743583387     0                        0                        -9.424850863099703                                -7.881627391271768+1.3643763538418412i
-0.016000000000000042     0                        0                        -9.426173795616966                                -9.026439768820381+1.3643763538418412i
-0.015000000000000041     0                        0                        -9.425181960097664                                -7.680924500829278+1.3643763538418412i
0.015038762512258608      0                        0                        -8.603125528872612                                -6.446180998334338
0.015871801576384653      0                        0                        -8.554075593236124                                -6.446180998334848
0.014999999999999986      0                        0                        -8.60595478620653                                 -6.476123404795098
0.01599999999999996       0                        0                        -8.547903164476647                                -6.441223278859909
-0.038880636355618836     0                        0                        -6.3840275520587655+1.3643763538418412i           -3.437667400730172+1.3643763538418412i
-0.038921412960064516     0                        0                        -6.399968031609166+1.3643763538418412i            -3.4376674007301724+1.3643763538418412i
-0.03892435689599935      0                        0                        -6.396035835752641+1.3643763538418412i            -3.4153213264893405+1.3643763538418412i
-0.03896201826244697      0                        0                        -6.411970311211339+1.3643763538418412i            -3.4153213264893414+1.3643763538418412i
0.03842848280803826       0                        0                        -5.5329522313676955+1.3643763538418412i           -2.4489981262292426+1.3643763538418412i
0.03853675357752259       0                        0                        -5.4784618886621494+1.3643763538418412i           -2.4465279340882384+1.3643763538418412i
0.03868710165072545       0                        0                        -5.4133230926550135+1.3643763538418412i           -2.4465279340882433+1.3643763538418412i
-0.025369071695675927     0                        0                        -9.18775875247826                                 -7.192958573451925+1.3643763538418412i
-0.02511604648877122      0                        0                        -9.192041975487731                                -7.251630496185178+1.3643763538418412i
-0.025102926916853757     0                        0                        -9.19253898412448                                 -7.251630496185215+1.3643763538418412i
-0.025072998421384746     0                        0                        -9.19461201952578                                 -7.103569313187796+1.3643763538418412i